LAMMPS data file from restart file: timestep = 40000, procs = 1

9 atoms
6 bonds
12 angles
0 dihedrals

3 atom types
1 bond types
1 angle types
0 dihedral types

-13.0000000000000000e+00 13.0000000000000000e+00 xlo xhi
-13.0000000000000000e+00 13.0000000000000000e+00 ylo yhi
-13.0000000000000000e+00 13.0000000000000000e+00 zlo zhi

Masses

1 1
2 1
3 1

Atoms

1 1 1 -2.0 2.0 -2.0
6 1 1 2.0 2.0 2.0
7 1 1 2.0 -2.0 2.0
8 1 1 -2.0 -2.0 2.0
9 2 2 1.0 0.0 0.0
2 1 1 2.0 2.0 -2.0
3 1 1 2.0 -2.0 -2.0
4 1 1 -2.0 -2.0 -2.0
5 1 1 -2.0 2.0 2.0

Velocities

1 0.0 0.0 0.0
2 0.0 0.0 0.0
3 0.0 0.0 0.0
4 0.0 0.0 0.0
5 0.0 0.0 0.0
6 0.0 0.0 0.0
7 0.0 0.0 0.0
8 0.0 0.0 0.0
9 0.0 -10.0 0.0

Bonds

1 1 1 2
2 1 1 3
3 1 1 4
4 1 5 2
5 1 5 3
6 1 5 4

Angles

1 1 1 2 3
2 1 3 4 1
3 1 5 7 6
4 1 7 5 8
5 1 1 6 2 
6 1 6 1 5
7 1 2 7 3
8 1 7 2 6
9 1 8 3 7
10 1 3 8 4
11 1 4 8 5
12 1 4 5 1
